file 8241 1483602532                                            
version 2
run General-0-20150526-13:38:52-1256
attr configname General
attr datetime 20150526-13:38:52
attr experiment General
attr inifile omnetpp.ini
attr iterationvars $0=50
attr iterationvars2 "$0=50, $repetition=0"
attr measurement $0=50
attr network net
attr processid 1256
attr repetition 0
attr replication #0
attr resultdir results
attr runnumber 0
attr seedset 0
vector 2  X:Number_of_user|Y:PDR  Z=50  ETV
2	541 333 3265 3265 0.100097242301 100.100097242301 11 0 50000 275000 9625000000
vector 222  X:Number_of_user|Y:PDR  Z=100  ETV
222	874 344 3265 3265 0.100097242301 100.100097242301 11 0 4200 31100 109850000
vector 21  X:wireless_link_Delay(ms)|Y:PDF  Z=50  ETV
21	1775 377 3265 3265 1.100097242301 12.100097242301 12 12000 145000 964000 99928000000
vector 2111  X:wireless_link_Delay(ms)|Y:PDF  Z=100  ETV
2111	2152 382 3265 3265 1.100097242301 12.100097242301 12 100 22000 115100 1604010000
vector 3  X:hops|Y:Latency(ms)  Z=50  ETV
3	3084 309 3265 3265 3.100097242301 35.100097242301 10 12000 120000 589000 45663000000
vector 333  X:hops|Y:Latency(ms)  Z=100  ETV
333	3393 314 3265 3265 3.100097242301 35.100097242301 10 1000 21000 82600 1192780000
vector 4  X:hops|Y:End2End_Delay(ms)  Z=50  ETV
4	4209 313 3265 3265 3.100097242301 35.100097242301 10 12000 90000 477000 29669000000
vector 444  X:hops|Y:End2End_Delay(ms)  Z=100  ETV
444	4522 325 3265 3265 3.100097242301 35.100097242301 10 10000 60000 345000 14625000000
vector 41  End2End_Delay(ms)  Z=50  ETV
41	5327 313 3265 3265 1.100097242301 10.100097242301 10 10000 70000 387000 18457000000
vector 4441  End2End_Delay(ms)  Z=100  ETV
4441	5640 325 3265 3265 1.100097242301 10.100097242301 10 6000 19000 135000 1995000000
vector 411  Throughput  Z=50  ETV
411	6461 319 3265 3265 10.100097242301 100.100097242301 10 100 700 3950 1906500
vector 44411  Throughput  Z=100  ETV
44411	6780 325 3265 3265 10.100097242301 100.100097242301 10 60 490 2060 598200
vector 42  Message_Delivery  Z=50  ETV
42	7553 335 3265 3265 1.100097242301 16.100097242301 11 1200 4200 34100 111270000
vector 4222  Message_Delivery  Z=100  ETV
4222	7888 353 3265 3265 1.100097242301 16.100097242301 11 800 2000 14000 20380000
